  ANIMSTEPS          5
 CRYSTAL
 PRIMVEC      1
 12.4732359836749    0.000000000    0.000000000
 0.000000000    12.4732359836749    0.000000000
 0.000000000   0.000000000    12.4732359836749
  PRIMCOORD      1
         190           1
O    10.824849     3.520838     3.800022 
O     2.659682     7.426208     8.273897 
O     4.156433     2.513634     8.204416 
O    11.646714    11.285180     2.574542 
O     4.787895     8.343378     4.752932 
O    -0.181946    10.289004     8.945370 
O     7.986501     0.009736     2.903775 
O     6.453210     4.710900     5.756548 
O    13.385537     4.886533     9.993882 
O     3.764381     7.332174    10.648950 
O     8.216640    10.933330     7.476163 
O     0.488768     0.575221    11.812664 
O     6.146499     3.984509     3.121167 
O    11.613588    10.961165     6.194760 
O     4.305814     1.568905     3.858760 
O    -2.005248     9.333998     4.979293 
O     8.510228     2.718325     2.677023 
O     4.707666    10.000550     8.720258 
O    10.596244    -0.896654    10.935500 
O     0.389252     4.726918     2.083323 
O     5.802058    14.289637     6.294827 
O     7.890138     9.971339     4.294289 
O     1.468229    -0.100566     9.399034 
O     1.121649     3.328847    12.181924 
O     4.892847     8.199178    14.372770 
O     7.686722     8.024708     2.446910 
O     2.748181     4.207673     3.254800 
O    10.120832     7.186650     6.278158 
O     7.525800    11.078272    -0.046776 
O     8.156843    12.249976    -2.436385 
O     6.207513     6.465117     8.540761 
O     4.389255     6.316947     6.500572 
O     8.740843     5.827723     4.341592 
O     9.932974    10.407169     0.768561 
O    -0.528385     4.814888     6.020026 
O     0.150182    13.809991     3.408801 
O     8.114827     2.640033    10.150518 
O     4.723124     5.638542     1.635052 
O     1.968513     8.417093    12.406136 
O     1.409326    10.833263     0.635420 
O     5.820526     4.012851     9.351620 
O    10.790347     1.058307     6.019391 
O     3.948853    -1.709750     0.822103 
O     4.146458     0.190256     9.746227 
O    10.800454     7.614119     1.132974 
O     1.973630     0.769852     5.116397 
O     8.680147     3.065571     6.876340 
O     1.052121     7.293120     2.300815 
O     5.289989    11.555484     3.633479 
O    12.341894     7.734348    10.462945 
O     3.815119     4.174145    11.750962 
O     2.194736     8.185154     4.558687 
O     1.566126    10.633128     5.549058 
O     6.050877     8.828687    10.986195 
O     5.701673    10.647680     6.095486 
O    -1.669263     3.878218     8.243099 
O     8.682210     7.326670    10.847022 
O     8.679406     1.854750    12.451804 
O     2.243198     4.322071     5.960917 
O     9.815602     4.848327    -1.869842 
O     8.556108     8.035185     8.358777 
O     4.089836     1.319678    -0.117581 
O     0.651094     1.722631     7.658094 
H    10.041243     3.178889     3.269971 
H     3.114033     7.219459     9.148521 
H     4.843808     3.195876     8.603363 
H    10.978945    10.979686     1.900593 
H     5.241950     9.018450     5.300556 
H    12.055556    10.292550     7.960095 
H     8.216429    -0.385659     2.047111 
H     5.590810     5.073926     6.205979 
H    12.826832     5.712733     9.926941 
H     3.724984     6.583441    11.370642 
H     7.998831    11.496322     8.213571 
H    12.033754     0.531299    11.582789 
H     5.406656     3.333869     3.130792 
H    12.679456    10.874645     5.796184 
H     4.699999    14.054629     4.704110 
H    -2.212458     8.475937     5.467988 
H     7.670953     3.116663     2.875268 
H    12.878004    11.034879     9.051312 
H    10.447810    -1.531058    11.673967 
H     0.311990     4.244414     1.272888 
H     5.213020    14.509986     7.048058 
H     7.838755     9.425334     3.458364 
H     1.238772     0.173049    10.384732 
H     0.798153     2.381964    12.014228 
H     4.966429     8.209338     2.871818 
H     8.033757    10.910840     4.222210 
H     3.454913     4.853005     3.128855 
H     9.606048     6.789397     5.534453 
H     6.950002    10.360972    -0.257890 
H    -0.546010    14.366738     3.789089 
H     5.744695     6.404155     7.679314 
H     3.754819     6.796329     7.138495 
H     9.346275     5.178264     3.925653 
H     9.009295    10.699064    12.876416 
H    -0.782272     5.755702     5.988063 
H    12.271037    13.033053     2.977230 
H     7.216125     2.931562    10.051880 
H     4.686806     6.614768     1.744803 
H     2.691750     8.175629    11.742495 
H     0.684470    10.794051     1.349571 
H     6.205926     4.934297     9.150638 
H     9.987638     1.619510     6.170788 
H     4.195296    -0.691513     0.766704 
H     4.179076     0.480638    10.684405 
H    11.648619     7.659046     1.640640 
H     1.302543     1.143457     4.415598 
H     9.374586     3.353285     7.619993 
H    11.168338    11.921198     6.227781 
H     0.845239     6.321921     2.154683 
H     4.803188    12.375391     3.496866 
H    11.435996     7.734295    10.690438 
H     4.046740     4.640112     0.157993 
H     1.828403     7.823038     3.641189 
H     1.837806    11.603904     5.198510 
H     6.863640     8.242888    10.870147 
H     6.455644    10.342980     5.488785 
H    11.303596     4.242609     7.433934 
H     8.940237     7.614013    11.710374 
H     9.011623     0.959393    12.443443 
H     1.283451     4.571213     5.794702 
H     9.011147     4.341100    -2.008206 
H     9.470579     7.275128     7.063616 
H     4.472701     2.192667    -0.360541 
H    13.624620     2.460219     7.943902 
H    11.442663     3.822062     3.127178 
H     2.531875     8.395661     8.418521 
H     3.470715    15.381276     7.714769 
H    10.974130    10.283659     5.752897 
H     3.831217     8.532771     4.824122 
H     8.835249     7.751705     9.210223 
H     7.027473    -0.013929     2.951385 
H     6.964448     4.043840     6.261595 
H    14.198142     5.041138     9.506192 
H     4.673556     7.756203    10.817176 
H     7.370592    10.933436     7.035041 
H     4.976123    10.215290     7.821557 
H     6.290753     4.254685     4.044713 
H    11.541143    10.638420     3.257615 
H     3.426698     1.886713     4.036040 
H     1.420073     9.900958     0.232510 
H     8.419950     1.737448     2.784298 
H     4.458487    10.852207     9.163815 
H    11.084728    -1.375691    10.256248 
H     1.134387     4.455587     2.679780 
H     6.329542    13.450044     6.381930 
H     9.534027     9.655738     4.654077 
H     2.470358     0.042211     9.373633 
H     0.949190     3.897237    11.419803 
H     4.626025     9.093328    14.026847 
H     6.795800     7.696353     2.102373 
H     2.679224     4.164603     4.244779 
H     8.107577     5.314791     4.806294 
H     7.516539    11.663859    -0.840519 
H     8.077414    13.254143     9.868785 
H     7.065362     6.677370     8.202247 
H     4.535350     6.889041     5.738292 
H     8.006134     7.267773     2.970383 
H     9.912018     9.452904    13.381463 
H    -0.899448     4.314879     5.253999 
H     0.903073    -0.263220    12.157211 
H     8.262890     2.481979    11.123675 
H     5.349029     5.234351     2.201457 
H     1.189029     8.095406    11.870926 
H     9.085338    12.142818    -2.057838 
H     5.250142     4.089381    10.105485 
H    11.555960     1.473097     6.490729 
H     2.994889    -1.754207     0.847303 
H     4.195645     0.995028     9.181383 
H    10.494166     6.700495     1.361642 
H    14.110246     1.134106     5.946999 
H     7.948348     2.652744     7.367840 
H     1.604301     7.731491     1.559078 
H     4.925476    11.043240     2.903987 
H    -0.031389     8.551292    -2.527493 
H     2.895224     3.852008    -0.445420 
H     1.727594     7.747101     5.295423 
H     1.827344     9.838304     5.091526 
H     5.865876     9.256791    10.134431 
H     5.252137    11.285445     5.534135 
H    -1.037997     3.251842     8.605691 
H     9.169689     6.430985    10.708007 
H     8.685544     2.154037    13.413848 
H     2.794511     5.109412     6.094005 
H    10.267943     4.761118    -2.746663 
H     8.428946     8.991515     8.235003 
H     3.086505     1.634247    12.305857 
H     1.112161     1.050337     8.290937 
 CRYSTAL
 PRIMVEC      2
 12.4732359836749    0.000000000    0.000000000
 0.000000000    12.4732359836749    0.000000000
 0.000000000   0.000000000    12.4732359836749
  PRIMCOORD      2
         190           1
O    10.819663     3.515165     3.800646 
O     2.666148     7.418641     8.272257 
O     4.163169     2.510427     8.207009 
O    11.636924    11.281000     2.574235 
O     4.789244     8.339304     4.756324 
O    -0.186920    10.292020     8.947169 
O     7.986501     0.011369     2.905103 
O     6.453634     4.713762     5.757713 
O    13.390671     4.894794     9.995840 
O     3.760159     7.329475    10.650168 
O     8.215053    10.930473     7.473093 
O     0.490446     0.576978    11.811288 
O     6.146870     3.986795     3.122807 
O    11.611471    10.963282     6.187405 
O     4.311672     1.566836     3.858570 
O    -2.011334     9.336750     4.981076 
O     8.516366     2.717082     2.678690 
O     4.715625    10.006424     8.715390 
O    10.598414    -0.890573    10.927509 
O     0.390162     4.728690     2.081370 
O     5.799571    14.286462     6.292182 
O     7.889768     9.967211     4.304783 
O     1.458264    -0.109690     9.395965 
O     1.123925     3.330546    12.180971 
O     4.893979     8.197960    14.370918 
O     7.685770     8.023120     2.448826 
O     2.755754     4.200910     3.250000 
O    10.124007     7.191148     6.278317 
O     7.530298    11.077796    -0.051698 
O     8.155362    12.250029    -2.434728 
O     6.209789     6.463476     8.537851 
O     4.392012     6.322768     6.498296 
O     8.737139     5.831162     4.346767 
O     9.931280    10.411509     0.766963 
O    -0.529992     4.816698     6.018174 
O     0.154174    13.810573     3.407536 
O     8.110805     2.640176    10.151524 
O     4.721880     5.638542     1.637190 
O     1.963046     8.411907    12.405501 
O     1.403791    10.827812     0.635769 
O     5.814387     4.013693     9.355165 
O    10.791458     1.056645     6.017803 
O     3.949853    -1.711110     0.816727 
O     4.146791     0.193871     9.748979 
O    10.799819     7.615125     1.138049 
O     1.971513     0.776933     5.118996 
O     8.678083     3.066487     6.884119 
O     1.058238     7.293279     2.295121 
O     5.282183    11.552415     3.622805 
O    12.345704     7.735089    10.463897 
O     3.817844     4.170271    11.748792 
O     2.188338     8.183461     4.555586 
O     1.570878    10.629794     5.545407 
O     6.051723     8.826835    10.989264 
O     5.704689    10.646146     6.103636 
O    -1.672338     3.878356     8.242358 
O     8.673849     7.322225    10.847286 
O     8.677660     1.854697    12.453233 
O     2.245892     4.323605     5.956207 
O     9.814121     4.845289    -1.865799 
O     8.563834     8.034233     8.366239 
O     4.091910     1.323456    -0.121230 
O     0.650544     1.727732     7.654760 
H    10.032406     3.185081     3.285804 
H     3.119399     7.223639     9.157517 
H     4.815719     3.191632     8.615746 
H    10.972542    10.971114     1.911727 
H     5.238997     9.001833     5.285914 
H    12.047248    10.297524     7.959407 
H     8.211931    -0.399978     2.045667 
H     5.552286     5.075556     6.209418 
H    12.820270     5.709875     9.934085 
H     3.725968     6.578255    11.398530 
H     7.986395    11.491983     8.216746 
H    12.025076     0.528639    11.590092 
H     5.398348     3.346638     3.137920 
H    12.665116    10.862262     5.819309 
H     4.679001    14.058545     4.713244 
H    -2.223206     8.480382     5.452854 
H     7.653966     3.114594     2.863320 
H    12.867949    11.028212     9.052052 
H    10.447175    -1.528761    11.667934 
H     0.313869     4.255654     1.275158 
H     5.214052    14.527661     7.058959 
H     7.843623     9.425493     3.446208 
H     1.248551     0.168950    10.382986 
H     0.801957     2.391606    12.034125 
H     4.968937     8.223573     2.894938 
H     8.032963    10.909464     4.215754 
H     3.453543     4.850465     3.118055 
H     9.598375     6.792413     5.530854 
H     6.942064    10.353511    -0.258803 
H    -0.549318    14.365785     3.787401 
H     5.733900     6.395265     7.676668 
H     3.758730     6.790402     7.139341 
H     9.344476     5.167225     3.934184 
H     9.011941    10.706102    12.887476 
H    -0.775361     5.742155     5.979279 
H    12.281780    13.014478     2.982496 
H     7.216443     2.931086    10.048493 
H     4.705692     6.626039     1.765669 
H     2.689210     8.175206    11.739426 
H     0.700350    10.801936     1.349926 
H     6.215715     4.927608     9.142013 
H     9.971709     1.648011     6.185658 
H     4.196375    -0.685105     0.757702 
H     4.165096     0.495153    10.686469 
H    11.653329     7.643489     1.636846 
H     1.288880     1.153839     4.414111 
H     9.369717     3.367382     7.615230 
H    11.180139    11.922257     6.209683 
H     0.862427     6.310597     2.156143 
H     4.804945    12.372957     3.480838 
H    11.450178     7.744244    10.700175 
H     4.035368     4.660712     0.155763 
H     1.844796     7.827960     3.662203 
H     1.827259    11.599459     5.210760 
H     6.847553     8.236061    10.892848 
H     6.461042    10.342345     5.472063 
H    11.319471     4.236005     7.433564 
H     8.921875     7.624597    11.698838 
H     9.015275     0.969807    12.439369 
H     1.297945     4.575129     5.794596 
H     9.027393     4.325791    -2.001729 
H     9.482115     7.293067     7.072242 
H     4.478448     2.202372    -0.382762 
H    13.641077     2.461346     7.951893 
H    11.454676     3.827920     3.138391 
H     2.528536     8.401270     8.417199 
H     3.486812    15.385880     7.704132 
H    10.988788    10.283871     5.735646 
H     3.803165     8.527691     4.834801 
H     8.825723     7.774089     9.213822 
H     7.043613     0.003129     2.943310 
H     6.978472     4.038400     6.255933 
H    14.201635     5.028549     9.488147 
H     4.672878     7.764723    10.809291 
H     7.375513    10.950476     7.032448 
H     4.974578    10.192218     7.814360 
H     6.296150     4.265486     4.059218 
H    11.535375    10.656888     3.264764 
H     3.411404     1.884374     4.043279 
H     1.429387     9.907203     0.235381 
H     8.435402     1.718826     2.801501 
H     4.462424    10.853054     9.171594 
H    11.099333    -1.369960    10.228943 
H     1.125930     4.457276     2.694475 
H     6.306046    13.469624     6.370394 
H     9.543129     9.672830     4.656024 
H     2.465315     0.045191     9.368659 
H     0.962859     3.892866    11.401705 
H     4.621516     9.071103    14.030552 
H     6.798975     7.692173     2.102627 
H     2.677515     4.177637     4.236429 
H     8.096940     5.304261     4.826789 
H     7.521302    11.686508    -0.823765 
H     8.066619    13.244882     9.883125 
H     7.070548     6.691287     8.198331 
H     4.555517     6.879674     5.740091 
H     8.001636     7.262322     2.951523 
H     9.896037     9.445972    13.385114 
H    -0.893622     4.316636     5.260746 
H     0.902840    -0.287276    12.143029 
H     8.272098     2.483841    11.106900 
H     5.365169     5.240479     2.195392 
H     1.184383     8.087733    11.886273 
H     9.088671    12.141918    -2.066030 
H     5.242580     4.096752    10.117868 
H    11.553314     1.472039     6.478664 
H     2.987618    -1.765944     0.828887 
H     4.179193     1.006516     9.180431 
H    10.497288     6.701871     1.395239 
H    14.113844     1.136143     5.942872 
H     7.954327     2.644293     7.366782 
H     1.603476     7.762606     1.565227 
H     4.919935    11.032445     2.905437 
H    -0.038384     8.551451    -2.517592 
H     2.916211     3.829290    -0.436420 
H     1.730584     7.744456     5.286438 
H     1.835467     9.831425     5.096691 
H     5.872438     9.259596    10.118874 
H     5.258445    11.282587     5.537522 
H    -1.022937     3.257244     8.598759 
H     9.178896     6.440510    10.706366 
H     8.689301     2.167965    13.403212 
H     2.801004     5.121462     6.116601 
H    10.262492     4.758282    -2.756844 
H     8.428417     8.986699     8.245798 
H     3.099010     1.624505    12.302259 
H     1.116765     1.030927     8.285486 
 CRYSTAL
 PRIMVEC      3
 12.4732359836749    0.000000000    0.000000000
 0.000000000    12.4732359836749    0.000000000
 0.000000000   0.000000000    12.4732359836749
  PRIMCOORD      3
         190           1
O    10.814477     3.509598     3.801286 
O     2.672662     7.411497     8.271040 
O     4.170017     2.507056     8.209814 
O    11.627399    11.277190     2.573352 
O     4.790091     8.335123     4.759399 
O    -0.192879    10.294772     8.948598 
O     7.987295     0.013118     2.906273 
O     6.453422     4.717027     5.759194 
O    13.395909     4.904017     9.998010 
O     3.756089     7.325929    10.652972 
O     8.213677    10.927562     7.470130 
O     0.493397     0.578957    11.810018 
O     6.147240     3.989007     3.124532 
O    11.609883    10.966457     6.180737 
O     4.317070     1.565047     3.857538 
O    -2.017779     9.339607     4.982246 
O     8.523087     2.715139     2.680161 
O     4.723277    10.012244     8.711262 
O    10.600742    -0.883975    10.918884 
O     0.390629     4.731252     2.080619 
O     5.797242    14.283392     6.289059 
O     7.889397     9.962396     4.315763 
O     1.449501    -0.117670     9.393742 
O     1.126121     3.331710    12.180336 
O     4.895291     8.196532    14.368855 
O     7.684288     8.021215     2.450477 
O     2.763168     4.193962     3.245645 
O    10.126705     7.195381     6.278688 
O     7.534954    11.077743    -0.056168 
O     8.153986    12.250611    -2.432823 
O     6.211852     6.461518     8.534676 
O     4.394473     6.328219     6.496603 
O     8.733964     5.834549     4.351419 
O     9.929428    10.415530     0.765391 
O    -0.531156     4.818153     6.016480 
O     0.158617    13.811631     3.406377 
O     8.107207     2.640224    10.152265 
O     4.719790     5.638965     1.638767 
O     1.957665     8.406668    12.404390 
O     1.397160    10.822044     0.636336 
O     5.808831     4.014449     9.358499 
O    10.792093     1.055365     6.016427 
O     3.952038    -1.711280     0.811440 
O     4.146929     0.197510     9.751519 
O    10.799184     7.615601     1.143631 
O     1.969280     0.783733     5.120795 
O     8.676442     3.067540     6.892269 
O     1.064578     7.293967     2.289316 
O     5.274674    11.549240     3.612180 
O    12.350573     7.735936    10.464691 
O     3.820326     4.166546    11.747311 
O     2.181808     8.181873     4.552453 
O     1.574985    10.627836     5.542337 
O     6.052729     8.824824    10.992281 
O     5.708340    10.644294     6.111150 
O    -1.674687     3.878737     8.241194 
O     8.665541     7.317145    10.847022 
O     8.675913     1.854946    12.455350 
O     2.248458     4.325066     5.951762 
O     9.813062     4.842982    -1.862148 
O     8.571242     8.033175     8.372007 
O     4.092916     1.327975    -0.125221 
O     0.650618     1.732304     7.651955 
H    10.023939     3.190706     3.301388 
H     3.122886     7.227079     9.162386 
H     4.785133     3.187303     8.626594 
H    10.964658    10.963017     1.923416 
H     5.236023     8.985694     5.271023 
H    12.039417    10.302710     7.964752 
H     8.206480    -0.412355     2.046233 
H     5.523869     5.072381     6.209101 
H    12.817466     5.704107     9.941917 
H     3.727836     6.580689    11.416840 
H     7.976447    11.489231     8.225054 
H    12.007772     0.520806    11.597236 
H     5.391522     3.359672     3.146265 
H    12.649240    10.849191     5.843386 
H     4.663263    14.062937     4.732003 
H    -2.232689     8.484933     5.439889 
H     7.631000     3.113949     2.850424 
H    12.862499    11.024402     9.053217 
H    10.447440    -1.525703    11.661584 
H     0.319481     4.261850     1.271211 
H     5.215962    14.541843     7.070337 
H     7.848174     9.429091     3.434344 
H     1.257611     0.163999    10.373514 
H     0.806942     2.405073    12.053281 
H     4.970212     8.239448     2.918994 
H     8.032169    10.910258     4.205043 
H     3.453098     4.849650     3.104794 
H     9.591125     6.793895     5.529955 
H     6.930211    10.341816    -0.261584 
H    -0.554234    14.363139     3.784871 
H     5.719718     6.385740     7.675980 
H     3.764127     6.784793     7.138812 
H     9.341301     5.159478     3.943561 
H     9.015222    10.711340    12.901340 
H    -0.770461     5.728767     5.968272 
H    12.290088    12.991089     2.988105 
H     7.211362     2.933023    10.043836 
H     4.725214     6.635512     1.785597 
H     2.685775     8.176211    11.738897 
H     0.719268    10.810932     1.348291 
H     6.221695     4.920396     9.132964 
H     9.962661     1.670046     6.199205 
H     4.193634    -0.691645     0.749812 
H     4.150903     0.510721    10.688480 
H    11.658674     7.625602     1.630898 
H     1.277063     1.160470     4.415545 
H     9.361198     3.377484     7.605652 
H    11.193897    11.919558     6.191373 
H     0.881646     6.301866     2.155439 
H     4.804056    12.376185     3.467545 
H    11.457745     7.755357    10.716526 
H     4.026054     4.679853     0.150791 
H     1.859137     7.832246     3.684592 
H     1.817639    11.589669     5.223260 
H     6.829349     8.231881    10.912851 
H     6.461889    10.343404     5.459310 
H    11.333335     4.227539     7.436951 
H     8.908116     7.635286    11.694181 
H     9.020461     0.977904    12.434871 
H     1.316625     4.580309     5.797189 
H     9.037659     4.309482    -1.996617 
H     9.495979     7.310636     7.076422 
H     4.484290     2.210230    -0.404637 
H    13.658117     2.466294     7.958772 
H    11.469651     3.836270     3.148964 
H     2.525858     8.401799     8.412701 
H     3.502095    15.394083     7.689739 
H    11.000959    10.280484     5.716807 
H     3.780098     8.521711     4.843432 
H     8.818156     7.797162     9.228586 
H     7.053773     0.020413     2.934817 
H     6.988155     4.035310     6.250588 
H    14.203910     5.017769     9.470579 
H     4.669650     7.772026    10.800930 
H     7.376095    10.964605     7.026732 
H     4.974065    10.170045     7.804623 
H     6.300119     4.276091     4.075707 
H    11.528602    10.673610     3.279465 
H     3.395518     1.880331     4.049047 
H     1.438616     9.914029     0.238584 
H     8.448579     1.704840     2.818837 
H     4.467203    10.851943     9.174927 
H    11.113145    -1.364187    10.201478 
H     1.119490     4.457037     2.703545 
H     6.281333    13.488992     6.361610 
H     9.553712     9.688282     4.659591 
H     2.456472     0.044988     9.364161 
H     0.975025     3.888373    11.381702 
H     4.616934     9.049989    14.033885 
H     6.806383     7.692543     2.104220 
H     2.675086     4.190374     4.227205 
H     8.082071     5.292090     4.851364 
H     7.525958    11.707675    -0.809239 
H     8.055876    13.231759     9.898895 
H     7.081291     6.709808     8.195367 
H     4.578775     6.874964     5.738292 
H     7.998619     7.255655     2.933795 
H     9.880162     9.439728    13.388713 
H    -0.889573     4.319769     5.267710 
H     0.897537    -0.312899    12.128742 
H     8.282205     2.484868    11.090178 
H     5.385754     5.242654     2.193678 
H     1.179552     8.080166    11.902465 
H     9.090206    12.139590    -2.078650 
H     5.233314     4.106537    10.134167 
H    11.548340     1.470748     6.465910 
H     2.978188    -1.773971     0.813578 
H     4.166831     1.014486     9.181172 
H    10.500252     6.707850     1.421772 
H    14.115908     1.140308     5.943454 
H     7.961154     2.634874     7.365935 
H     1.598438     7.789965     1.574646 
H     4.913051    11.016517     2.905141 
H    -0.045012     8.551874    -2.507993 
H     2.936965     3.808409    -0.430293 
H     1.733214     7.741492     5.276526 
H     1.845543     9.821688     5.097109 
H     5.879476     9.261448    10.103686 
H     5.263376    11.280206     5.538845 
H    -1.005908     3.262028     8.591986 
H     9.186728     6.452893    10.706684 
H     8.693217     2.184639    13.387548 
H     2.805089     5.131310     6.136551 
H    10.256354     4.754980    -2.763247 
H     8.428470     8.983683     8.255958 
H     3.122701     1.609418    12.299772 
H     1.114796     1.012147     8.277549 
 CRYSTAL
 PRIMVEC      4
 12.4732359836749    0.000000000    0.000000000
 0.000000000    12.4732359836749    0.000000000
 0.000000000   0.000000000    12.4732359836749
  PRIMCOORD      4
         190           1
O    10.809609     3.504275     3.801964 
O     2.679198     7.405041     8.270299 
O     4.176616     2.503537     8.212672 
O    11.618350    11.273803     2.572008 
O     4.789922     8.330572     4.761923 
O    -0.199996    10.297259     8.949604 
O     7.989253     0.014901     2.907204 
O     6.452416     4.720679     5.760994 
O    13.401466     4.914141    10.000391 
O     3.752226     7.321431    10.657417 
O     8.212513    10.924705     7.467431 
O     0.497275     0.580873    11.808801 
O     6.147663     3.991261     3.126628 
O    11.608878    10.970426     6.174810 
O     4.321759     1.563687     3.856003 
O    -2.024357     9.342571     4.982801 
O     8.529966     2.712515     2.681579 
O     4.730590    10.017907     8.708087 
O    10.603494    -0.877037    10.909411 
O     0.390657     4.734633     2.081148 
O     5.794438    14.281170     6.285620 
O     7.889027     9.957051     4.326870 
O     1.442050    -0.124503     9.392208 
O     1.128306     3.332705    12.179913 
O     4.896958     8.194627    14.367267 
O     7.682330     8.019151     2.451831 
O     2.770375     4.186871     3.241703 
O    10.128875     7.199297     6.279111 
O     7.539505    11.077743    -0.060165 
O     8.152663    12.251564    -2.430649 
O     6.213916     6.459243     8.531183 
O     4.396701     6.333087     6.495439 
O     8.731001     5.837460     4.355795 
O     9.927523    10.418917     0.763931 
O    -0.531717     4.819010     6.015051 
O     0.163368    13.813007     3.405224 
O     8.103979     2.640229    10.152371 
O     4.717107     5.639865     1.640047 
O     1.952510     8.401376    12.402855 
O     1.389672    10.816065     0.636934 
O     5.803592     4.015143     9.361939 
O    10.791987     1.054581     6.015263 
O     3.955129    -1.710343     0.806244 
O     4.146850     0.201277     9.753794 
O    10.798549     7.615389     1.149759 
O     1.966920     0.790273     5.121753 
O     8.675119     3.068741     6.900630 
O     1.071044     7.295025     2.283516 
O     5.267520    11.546118     3.601734 
O    12.356341     7.736835    10.465273 
O     3.822713     4.163064    11.746517 
O     2.175410     8.180498     4.549585 
O     1.578472    10.626937     5.539850 
O     6.053629     8.822866    10.995032 
O     5.712733    10.642177     6.117924 
O    -1.676126     3.879250     8.239607 
O     8.657339     7.311589    10.846281 
O     8.673955     1.855576    12.457890 
O     2.251305     4.326595     5.947581 
O     9.812586     4.841368    -1.858978 
O     8.578280     8.032063     8.376081 
O     4.093307     1.333257    -0.129624 
O     0.651502     1.736458     7.649944 
H    10.015049     3.195421     3.315375 
H     3.124977     7.229989     9.163920 
H     4.755663     3.184387     8.636437 
H    10.954127    10.954762     1.934963 
H     5.235293     8.973734     5.258852 
H    12.031902    10.308107     7.975494 
H     8.200500    -0.422007     2.049149 
H     5.508258     5.064194     6.204550 
H    12.818524     5.696328     9.950172 
H     3.730641     6.591431    11.424460 
H     7.969303    11.486797     8.237120 
H    11.983482     0.506908    11.605491 
H     5.386071     3.372769     3.155844 
H    12.633259    10.836861     5.866353 
H     4.652621    14.067435     4.757906 
H    -2.241155     8.488637     5.429623 
H     7.606076     3.113144     2.836321 
H    12.861864    11.024031     9.054963 
H    10.448763    -1.521490    11.654123 
H     0.329208     4.262787     1.260680 
H     5.219984    14.552003     7.080709 
H     7.852302     9.437505     3.424898 
H     1.265289     0.158361    10.356792 
H     0.812245     2.419991    12.071114 
H     4.970048     8.255588     2.938563 
H     8.031058    10.911899     4.190740 
H     3.453664     4.850486     3.088956 
H     9.584405     6.794265     5.532442 
H     6.916452    10.328692    -0.266078 
H    -0.560430    14.358430     3.781183 
H     5.703049     6.375580     7.678414 
H     3.770589     6.780136     7.137383 
H     9.336538     5.155091     3.954070 
H     9.018397    10.715309    12.918486 
H    -0.768969     5.719453     5.955096 
H    12.296279    12.966217     2.995169 
H     7.201255     2.937352    10.038386 
H     4.744037     6.641333     1.803055 
H     2.681055     8.178698    11.741013 
H     0.738985    10.820563     1.346618 
H     6.223812     4.912606     9.123703 
H     9.962131     1.682905     6.209736 
H     4.187575    -0.709214     0.742833 
H     4.136652     0.526976    10.690120 
H    11.665500     7.604594     1.622066 
H     1.267247     1.163274     4.420191 
H     9.349979     3.384411     7.592899 
H    11.208661    11.914478     6.173381 
H     0.902882     6.296733     2.152233 
H     4.800865    12.384123     3.456644 
H    11.457427     7.767157    10.740022 
H     4.018905     4.696786     0.142570 
H     1.869848     7.834416     3.703838 
H     1.809495    11.575646     5.235282 
H     6.811939     8.228970    10.929256 
H     6.457920    10.346208     5.451319 
H    11.343601     4.217532     7.444518 
H     8.898697     7.645817    11.695504 
H     9.027869     0.982878    12.430214 
H     1.338273     4.587675     5.802587 