  ANIMSTEPS          11
 CRYSTAL
 PRIMVEC      1
 12.444660414411    0.000000000    0.000000000
 0.000000000    12.444660414411    0.000000000
 0.000000000   0.000000000    12.444660414411
  PRIMCOORD      1
         190           1
O    10.765369     3.739822     3.553266 
O     3.197373     7.477909     8.323534 
O     4.740041     2.479809     7.879025 
O    11.995124    11.242581     2.396088 
O     4.266491     8.045663     4.239958 
O    -0.307425    10.007799     9.854444 
O     7.570938    -0.379112     2.413800 
O     7.493308     5.201494     5.635102 
O    13.516191     5.170580     9.052105 
O     3.612428     7.048905    10.699751 
O     7.818276    10.730391     8.056035 
O    -0.251099     1.093074    11.872091 
O     6.069133     3.632743     3.594822 
O    11.559294    10.859140     6.902852 
O     4.390917     1.802912     4.645668 
O    -1.975868     9.266052     5.286062 
O     8.523828     2.617533     2.753722 
O     3.823766    10.211744     8.366080 
O    10.359385    -1.037706    11.466688 
O     0.493832     4.570033     2.009011 
O     5.905512    12.996539     6.423312 
O     8.258392    10.341763     4.570953 
O     0.972638     0.160874     9.420148 
O     0.887727     3.642136    11.280947 
O     5.132495     7.792822    14.157925 
O     7.620946     8.101544     2.656745 
O     2.507818     4.679773     3.648926 
O     9.643302     7.346303     6.841150 
O     7.029378    10.222963     0.350533 
O     7.757262    11.793085    -1.963882 
O     6.926983     6.439134     8.602993 
O     4.708608     6.464905     6.532798 
O     9.262718     5.958059     3.382591 
O    10.033888     9.794171     1.078733 
O     0.128190     5.490055     5.396973 
O    -0.594880    13.772631     3.258070 
O     8.123611     2.908829     9.777290 
O     4.663237     5.021198     1.790820 
O     1.608275     8.295964    12.261459 
O     1.467848    10.818552     0.381781 
O     5.493230     4.016005     9.971445 
O    10.482842     1.016782     6.626675 
O     3.975253    -2.061098     0.925203 
O     3.889595     0.405246     9.786603 
O    10.350389     7.397633     1.572566 
O     1.539466     1.081966     4.864805 
O     8.105301     2.399607     7.138442 
O     0.462858     7.292485     2.181681 
O     4.898710    11.756995     3.020882 
O    12.601932     7.539294    10.300223 
O     3.692636     4.347381    11.925855 
O     1.540070     8.415611     4.541415 
O     1.481887    11.047738     5.811424 
O     6.114166     7.947130    10.456012 
O     5.430417    10.325517     5.243395 
O    -1.141038     4.450714     7.694342 
O    10.105168     7.443671    11.017469 
O     9.909743     3.011801    11.984382 
O     2.654750     4.831134     6.748279 
O     9.660500     5.305584    -2.957735 
O     8.545736     8.308029     9.081316 
O     5.580174     1.434097    -0.390135 
O     0.803683     2.037745     7.240255 
H     9.942499     3.326318     3.162262 
H     3.340468     7.188026     9.287748 
H     5.021611     3.123844     8.602146 
H    11.162940    10.892160     1.941874 
H     4.792562     8.850806     4.707275 
H    11.691324    10.064263     8.986064 
H     7.604912    -0.890325     1.621092 
H     6.794741     5.603087     6.207937 
H    13.282348     6.109245     9.298331 
H     3.680877     6.147399    11.092560 
H     7.663227    11.378633     8.794237 
H    11.316666     0.657746    11.721275 
H     5.500797     2.968002     4.017058 
H    12.426827    11.000324     6.393784 
H     4.808210    13.848197     5.419251 
H    -2.265154     8.400794     5.803539 
H     7.622798     2.956323     2.882079 
H    12.703005    10.820404     9.922126 
H    10.285141    -1.576631    12.204361 
H     0.720411     4.197412     1.174123 
H     5.524769    13.476556     7.155323 
H     8.016188     9.435600     4.265253 
H     0.578168     0.621122    10.174279 
H     0.635542     2.740778    11.142726 
H     4.754975     7.801554     2.592275 
H     8.156949    10.882635     3.778315 
H     3.371351     4.705031     3.202824 
H     9.229380     6.480251     6.819507 
H     6.900100     9.322462     0.533495 
H    -1.218219    14.225818     3.793703 
H     6.222489     6.578678     7.833992 
H     4.155248     6.969052     7.155746 
H     9.810258     5.157139     3.624012 
H     9.071685     9.822323    13.494019 
H    -0.544206     5.681299     6.042886 
H    11.570566    12.874564     3.300558 
H     7.340164     3.221250    10.221746 
H     4.931238     5.998435     1.774411 
H     2.566906     8.096570    12.154354 
H     0.803471    10.916608     1.042469 
H     5.883868     4.894656     9.883760 
H     9.620283     1.451697     6.716370 
H     4.796208    -1.862116     0.371201 
H     4.185802     0.494481    10.734095 
H    11.337304     7.434887     1.837213 
H     0.929637     1.124099     4.126116 
H     8.304960     2.544681     8.138322 
H    11.076579    11.775304     6.878827 
H     0.651269     6.323932     2.057012 
H     4.374041    12.308080     3.570771 
H    11.660314     7.367046    10.701921 
H     4.240927     4.582849     0.356613 
H     1.189733     7.854366     3.777256 
H     1.636819    11.857591     5.371731 
H     6.365896     7.340270     9.706010 
H     6.325837    10.228202     5.497834 
H    12.165255     4.795182     8.201665 
H     9.976419     7.441554    11.952579 
H    10.707213     3.535317    11.752497 
H     1.937085     5.004498     6.042198 
H     8.970771     4.615875    -2.805412 
H     9.364955     7.735565     7.710694 
H     5.562023     2.336185    -0.652698 
H    13.811631     2.796612     7.264809 
H    11.542307     3.916790     2.995905 
H     3.267077     8.439530     8.374653 
H     4.263279    15.452504     7.201202 
H    10.824690    10.003248     6.070298 
H     3.340627     8.356237     4.279038 
H     9.081263     8.323058     9.877622 
H     6.582541    -0.346853     2.679431 
H     7.769274     4.407924     6.224606 
H    14.153638     5.226858     8.306812 
H     4.522184     7.416366    10.742615 
H     8.320094    11.116637     7.320585 
H     3.768303    10.421193     7.474311 
H     6.377432     4.323584     4.244414 
H    12.265216    10.483371     2.970139 
H     3.421041     1.876362     4.819439 
H     1.563285     9.886565     0.123976 
H     8.440324     1.678084     2.811048 
H     3.908164    11.066154     8.813976 
H    11.042288    -1.431165    10.909147 
H     1.342665     4.361611     2.526181 
H     5.710563    12.063229     6.442997 
H     9.567577     9.616684     4.989691 
H     1.864910     0.036361     9.643990 
H     0.957477     4.112067    10.342345 
H     4.549104     8.408097    13.649703 
H     6.691552     7.866113     2.380699 
H     2.331047     5.600177     3.881218 
H     8.612994     6.087073     4.078670 
H     7.441660    10.318215    -0.507047 
H     7.455789    12.661253    10.767327 
H     7.722336     7.086318     8.565421 
H     4.604000     6.956987     5.658756 
H     8.130649     7.249939     2.698238 
H    10.204389     8.844086    13.823167 
H    -0.305222     4.853904     4.798007 
H     0.191671     0.517476    12.559651 
H     8.719412     2.606669    10.499723 
H     5.281707     4.525275     2.377313 
H     1.129158     7.869236    11.392021 
H     8.714808    11.738156    -1.620140 
H     4.699485     4.116263    10.610056 
H    11.153786     1.716201     6.580213 
H     3.116600    -1.787539     0.506781 
H     4.254807     1.168862     9.237688 
H     9.947791     6.777437     2.225180 
H    13.489203     1.451136     5.584883 
H     7.378900     1.753720     7.181146 
H     0.906449     7.626661     1.377057 
H     4.361240    11.208079     2.345049 
H     0.031435     8.493770    -2.399935 
H     2.762797     4.053804    -0.423250 
H     1.265887     7.941098     5.344266 
H     1.776337    10.277203     5.246030 
H     5.941073     8.839164    10.147820 
H     5.439889    10.789606     4.373576 
H    -0.830433     3.545307     7.461399 
H     9.945991     6.479934    10.692025 
H     9.798721     3.041197    13.010033 
H     3.461443     5.363952     6.520310 
H    10.326682     4.948664    -3.600781 
H     8.193092     9.229009     8.918223 
H     5.395861     1.443151    13.047235 
H     0.960991     1.453962     8.047568 
 CRYSTAL
 PRIMVEC      2
 12.444660414411    0.000000000    0.000000000
 0.000000000    12.444660414411    0.000000000
 0.000000000   0.000000000    12.444660414411
  PRIMCOORD      2
         190           1
O    10.765528     3.737055     3.556039 
O     3.194595     7.482301     8.318824 
O     4.737374     2.482804     7.879025 
O    11.996500    11.234697     2.399607 
O     4.262755     8.047462     4.238831 
O    -0.305067    10.002455     9.847141 
O     7.564377    -0.375213     2.410720 
O     7.490662     5.206855     5.633091 
O    13.513651     5.168802     9.046496 
O     3.619673     7.048429    10.692078 
O     7.813831    10.731873     8.056405 
O    -0.245674     1.093037    11.869815 
O     6.071515     3.631569     3.596410 
O    11.562310    10.861098     6.904704 
O     4.392388     1.796811     4.649552 
O    -1.980462     9.272825     5.291005 
O     8.520282     2.617247     2.752065 
O     3.827957    10.206400     8.363222 
O    10.364624    -1.044617    11.462508 
O     0.486329     4.567381     2.007317 
O     5.909322    12.988284     6.426434 
O     8.261197    10.338006     4.580150 
O     0.973564     0.165812     9.429779 
O     0.885208     3.645248    11.281000 
O     5.127865     7.791764    14.155808 
O     7.617400     8.097258     2.656501 
O     2.503484     4.670777     3.645883 
O     9.643673     7.340111     6.836599 
O     7.028108    10.227672     0.343122 
O     7.757897    11.801340    -1.961956 
O     6.930211     6.440192     8.599341 
O     4.708222     6.469138     6.532058 
O     9.257797     5.962134     3.378606 
O    10.033306     9.799568     1.074537 
O     0.128665     5.494923     5.398825 
O    -0.596801    13.777182     3.262901 
O     8.122447     2.910834     9.784434 
O     4.666898     5.024426     1.795625 
O     1.607889     8.291889    12.261301 
O     1.467012    10.822309     0.385328 
O     5.495135     4.012417     9.973985 
O    10.487604     1.021407     6.633130 
O     3.975539    -2.060267     0.925102 
O     3.894718     0.404432     9.782687 
O    10.348801     7.405623     1.577795 
O     1.539440     1.080919     4.862112 
O     8.113662     2.396993     7.134685 
O     0.467342     7.295819     2.179580 
O     4.889005    11.756201     3.019718 
O    12.607753     7.537071    10.305038 
O     3.693239     4.347609    11.932734 
O     1.538726     8.415346     4.536255 
O     1.483691    11.051443     5.809254 
O     6.117024     7.947025    10.458076 
O     5.430734    10.327317     5.246697 
O    -1.144393     4.448803     7.699105 
O    10.102152     7.434887    11.016623 
O     9.915987     3.012331    11.990097 
O     2.655745     4.831605     6.751878 
O     9.663675     5.303784    -2.966668 
O     8.539915     8.302526     9.079570 
O     5.578110     1.427212    -0.385756 
O     0.805831     2.038068     7.237557 
H     9.937525     3.323069     3.153764 
H     3.333033     7.189084     9.287801 
H     5.003397     3.127818     8.604845 
H    11.159130    10.885546     1.958337 
H     4.771437     8.840434     4.725849 
H    11.701272    10.072041     8.977227 
H     7.608351    -0.858087     1.627363 
H     6.791831     5.599965     6.201322 
H    13.267319     6.110515     9.279387 
H     3.663526     6.153325    11.098487 
H     7.638991    11.378845     8.803180 
H    11.335822     0.654698    11.717783 
H     5.483705     2.958746     4.039099 
H    12.435400    11.015353     6.388439 
H     4.813512    13.829094     5.416340 
H    -2.270546     8.393703     5.793326 
H     7.598456     2.968155     2.864521 
H    12.690569    10.811196     9.918898 
H    10.303080    -1.587214    12.206425 
H     0.707145     4.201275     1.176414 
H     5.517995    13.490156     7.162466 
H     8.013860     9.400304     4.235561 
H     0.569284     0.624381    10.170839 
H     0.631917     2.754447    11.131719 
H     4.755652     7.794304     2.591741 
H     8.148588    10.893695     3.799180 
H     3.383781     4.709704     3.200067 
H     9.229962     6.484855     6.818131 
H     6.892321     9.338814     0.526038 
H    -1.231173    14.216928     3.808139 
H     6.246408     6.576350     7.818540 
H     4.170170     6.974026     7.169557 
H     9.804489     5.164833     3.599485 
H     9.066340     9.838039    13.487880 
H    -0.557054     5.679818     6.035319 
H    11.570989    12.856466     3.297732 
H     7.346091     3.213905    10.210633 
H     4.934085     6.002775     1.763451 
H     2.579882     8.101121    12.159169 
H     0.809975    10.921424     1.067186 
H     5.873550     4.882718     9.887253 
H     9.624622     1.439261     6.713830 
H     4.814518    -1.859640     0.358374 
H     4.188110     0.501709    10.728539 
H    11.343390     7.439808     1.842315 
H     0.925621     1.097360     4.141346 
H     8.310834     2.532917     8.148694 
H    11.077902    11.799276     6.867291 
H     0.645586     6.320651     2.071469 
H     4.381010    12.346128     3.573729 
H    11.680423     7.361437    10.704249 
H     4.241345     4.580272     0.350506 
H     1.170868     7.846428     3.786184 
H     1.624479    11.854575     5.354109 
H     6.359334     7.351489     9.732892 
H     6.324303    10.214549     5.488256 
H    12.151390     4.773723     8.196479 
H     9.989754     7.421552    11.953319 
H    10.698693     3.510773    11.741807 
H     1.940906     5.005540     6.027699 
H     8.973205     4.628073    -2.802507 
H     9.376544     7.724929     7.713710 
H     5.551334     2.311319    -0.642903 
H    13.784061     2.791764     7.257136 
H    11.559982     3.931676     3.001747 
H     3.287868     8.454823     8.389205 
H     4.270952    15.463299     7.214485 
H    10.838343     9.988114     6.067863 
H     3.354343     8.352798     4.271963 
H     9.084068     8.338986     9.895720 
H     6.590902    -0.347471     2.692607 
H     7.756891     4.423858     6.206402 
H    14.159618     5.218333     8.285645 
H     4.522084     7.404248    10.750923 
H     8.309564    11.114679     7.322490 
H     3.785310    10.441090     7.464997 
H     6.371876     4.339602     4.236349 
H    12.274265    10.494907     2.978490 
H     3.427110     1.867921     4.823403 
H     1.571767     9.892968     0.123598 
H     8.437519     1.677248     2.824679 
H     3.905883    11.053718     8.820061 
H    11.026677    -1.434404    10.918037 
H     1.339178     4.364955     2.512047 
H     5.704054    12.052064     6.450088 
H     9.553924     9.622135     4.998502 
H     1.875642     0.046173     9.659442 
H     0.955673     4.128286    10.330121 
H     4.529736     8.412753    13.631234 
H     6.707427     7.868389     2.387796 
H     2.350113     5.588376     3.877922 
H     8.628023     6.080034     4.067002 
H     7.455419    10.309060    -0.501823 
H     7.459599    12.677393    10.771878 
H     7.718420     7.095737     8.540232 
H     4.621463     6.969740     5.662619 
H     8.133401     7.240838     2.706286 
H    10.189783     8.836889    13.833962 
H    -0.309496     4.874304     4.790033 
H     0.188792     0.519157    12.559598 
H     8.716395     2.629116    10.498823 
H     5.269880     4.536329     2.373058 
H     1.131339     7.882095    11.401388 
H     8.712056    11.739955    -1.631109 
H     4.695067     4.119946    10.606987 
H    11.153680     1.699521     6.573122 
H     3.120553    -1.799144     0.511617 
H     4.240567     1.161052     9.239328 
H     9.966735     6.777860     2.197699 
H    13.490738     1.443754     5.583984 
H     7.360643     1.759895     7.155905 
H     0.926970     7.626502     1.391265 
H     4.384582    11.190405     2.348144 
H     0.035994     8.479112    -2.378509 
H     2.754759     4.053534    -0.429451 
H     1.256240     7.941944     5.338128 
H     1.788974    10.274028     5.261651 
H     5.959594     8.837365    10.149196 
H     5.450525    10.803364     4.373745 
H    -0.832602     3.550335     7.479073 
H     9.938054     6.482262    10.688163 
H     9.796922     3.034577    12.994052 
H     3.459581     5.351146     6.541371 
H    10.310171     4.963545    -3.614132 
H     8.191557     9.238746     8.918223 
H     5.380039     1.458074    13.041255 
H     0.969929     1.457645     8.046616 
 CRYSTAL
 PRIMVEC      3
 12.444660414411    0.000000000    0.000000000
 0.000000000    12.444660414411    0.000000000
 0.000000000   0.000000000    12.444660414411
  PRIMCOORD      3
         190           1
O    10.765528     3.734589     3.559378 
O     3.191701     7.487011     8.313956 
O     4.734871     2.485842     7.879237 
O    11.997612    11.226336     2.403131 
O     4.259993     8.049791     4.238265 
O    -0.302923     9.997480     9.839786 
O     7.557603    -0.370588     2.409148 
O     7.487858     5.211792     5.631768 
O    13.510847     5.167278     9.040199 
O     3.627049     7.047529    10.684723 
O     7.809068    10.733248     8.056988 
O    -0.240125     1.092666    11.867910 
O     6.074002     3.630833     3.597961 
O    11.564586    10.863744     6.906186 
O     4.393526     1.790820     4.653172 
O    -1.985351     9.279228     5.296535 
O     8.516472     2.617512     2.750145 
O     3.832317    10.200896     8.361053 
O    10.369492    -1.050433    11.457427 
O     0.479220     4.564905     2.006386 
O     5.913185    12.980770     6.429238 
O     8.263737    10.333032     4.589438 
O     0.973808     0.170787     9.438934 
O     0.883117     3.649587    11.280259 
O     5.122954     7.790759    14.152792 
O     7.614119     8.092548     2.656517 
O     2.499389     4.661501     3.642676 
O     9.644255     7.334237     6.832048 
O     7.026785    10.233705     0.335830 
O     7.759061    11.810018    -1.959713 
O     6.932804     6.441251     8.594526 
O     4.708434     6.473531     6.530417 
O     9.253351     5.965944     3.374552 
O    10.032671     9.805124     1.070573 
O     0.129448     5.499897     5.400253 
O    -0.598394    13.781309     3.267368 
O     8.122023     2.912523     9.791260 
O     4.670560     5.028618     1.800367 
O     1.607905     8.287391    12.261036 
O     1.466736    10.826701     0.388408 
O     5.496511     4.008496     9.976948 
O    10.492632     1.025519     6.639639 
O     3.977074    -2.059547     0.924690 
O     3.900057     0.403640     9.778824 
O    10.348166     7.413984     1.582721 
O     1.540313     1.079670     4.859503 
O     8.121600     2.394479     7.131986 
O     0.472091     7.298888     2.177670 
O     4.879723    11.754984     3.018374 
O    12.613309     7.534478    10.310065 
O     3.694318     4.348090    11.939667 
O     1.537382     8.414711     4.531413 
O     1.485448    11.053506     5.807561 
O     6.119405     7.947236    10.461198 
O     5.430152    10.329275     5.249904 
O    -1.146806     4.447057     7.703815 
O    10.099135     7.425520    11.015247 
O     9.922020     3.012780    11.996712 
O     2.655697     4.831854     6.754947 
O     9.666480     5.302409    -2.974764 
O     8.534200     8.297922     9.077665 
O     5.575834     1.419153    -0.380268 
O     0.807085     2.037417     7.235334 
H     9.935461     3.319724     3.143307 
H     3.325699     7.190460     9.284679 
H     4.984892     3.130898     8.605639 
H    11.157701    10.878455     1.977826 
H     4.745254     8.824083     4.741031 
H    11.713020    10.081196     8.968125 
H     7.610521    -0.834153     1.624267 
H     6.790032     5.597213     6.193384 
H    13.257000     6.109774     9.265840 
H     3.643533     6.160205    11.104784 
H     7.621157    11.377945     8.808049 
H    11.354979     0.651766    11.715348 
H     5.468994     2.952179     4.058578 
H    12.444449    11.030911     6.384788 
H     4.820577    13.808138     5.415070 
H    -2.273705     8.389734     5.782954 
H     7.579141     2.978305     2.850582 
H    12.678715    10.801089     9.913553 
H    10.322713    -1.607746    12.219548 
H     0.693307     4.202159     1.169937 
H     5.509211    13.503967     7.171727 
H     8.011373     9.370564     4.204361 
H     0.559430     0.628663    10.171421 
H     0.626080     2.761776    11.120553 
H     4.753403     7.789171     2.597794 
H     8.140968    10.906713     3.814357 
H     3.393640     4.713863     3.197209 
H     9.229274     6.485596     6.815802 
H     6.883431     9.343576     0.520621 
H    -1.244789    14.213329     3.823099 
H     6.274719     6.573968     7.811767 
H     4.181273     6.981435     7.188026 
H     9.799145     5.171966     3.574312 
H     9.060996     9.853121    13.483118 
H    -0.572723     5.678071     6.030609 
H    11.572259    12.833976     3.292588 
H     7.344398     3.209185    10.202060 
H     4.935816     6.002563     1.751947 
H     2.586618     8.104878    12.162291 
H     0.813308    10.925551     1.094524 
H     5.863548     4.872844     9.889370 
H     9.625416     1.428657     6.711660 
H     4.824032    -1.858349     0.350021 
H     4.190628     0.510204    10.718220 
H    11.344924     7.442719     1.845384 
H     0.917509     1.074595     4.149416 
H     8.314274     2.519635     8.152028 
H    11.083405    11.816368     6.856337 
H     0.636743     6.317106     2.088096 
H     4.384471    12.382853     3.576349 
H    11.703336     7.356463    10.705043 
H     4.234762     4.575499     0.341945 
H     1.152040     7.842089     3.797021 
H     1.613837    11.860978     5.330614 
H     6.355312     7.360061     9.751889 
H     6.331023    10.199732     5.480424 
H    12.132975     4.750673     8.189176 
H    10.001608     7.403189    11.960675 
H    10.691232     3.485939    11.732123 
H     1.953225     5.005440     6.016216 
H     8.978391     4.641821    -2.800787 
H     9.388503     7.714822     7.716250 
H     5.540750     2.298143    -0.636891 
H    13.762259     2.794394     7.250416 
H    11.572788     3.943317     3.004271 
H     3.305865     8.467841     8.401799 
H     4.277884    15.473247     7.228084 
H    10.854959     9.971233     6.063789 
H     3.363212     8.349093     4.265279 
H     9.086925     8.351316     9.913235 
H     6.606460    -0.349193     2.705789 
H     7.743926     4.442210     6.184494 
H    14.165492     5.210004     8.266542 
H     4.526989     7.391971    10.760078 
H     8.299510    11.114097     7.325771 
H     3.799535    10.460034     7.449175 
H     6.365473     4.351086     4.227369 
H    12.281092    10.506549     2.984776 
H     3.434196     1.859074     4.826625 
H     1.576281     9.894979     0.122619 
H     8.434291     1.671359     2.837374 
H     3.903597    11.043240     8.827628 
H    11.014347    -1.442198    10.922641 
H     1.332780     4.370490     2.498690 
H     5.696857    12.039787     6.458026 
H     9.543129     9.630814     5.006085 
H     1.893370     0.055373     9.675423 
H     0.953223     4.143510    10.325729 
H     4.514019     8.415082    13.615888 
H     6.722773     7.870982     2.393712 
H     2.369068     5.577581     3.875281 
H     8.638924     6.072785     4.061573 
H     7.470765    10.299905    -0.500653 
H     7.462192    12.691151    10.776165 
H     7.708524     7.103463     8.513456 
H     4.637571     6.979689     5.669287 
H     8.132977     7.237133     2.712790 
H    10.174490     8.830645    13.843752 
H    -0.312923     4.892148     4.783974 
H     0.183974     0.523791    12.555523 
H     8.714649     2.655369    10.499352 
H     5.261180     4.545537     2.371296 
H     1.134699     7.895641    11.414141 
H     8.706764    11.741913    -1.644307 
H     4.694014     4.123195    10.602595 
H    11.155426     1.683556     6.566084 
H     3.123119    -1.806897     0.515971 
H     4.225872     1.151812     9.243350 
H     9.980811     6.777120     2.176860 
H    13.490738     1.438282     5.589276 
H     7.346038     1.767325     7.130980 
H     0.948587     7.629624     1.401896 
H     4.406247    11.177069     2.352558 
H     0.040632     8.469322    -2.363184 
H     2.749446     4.053852    -0.434462 
H     1.247805     7.943267     5.331778 
H     1.800589    10.275034     5.281982 
H     5.979438     8.836148    10.148296 
H     5.460527    10.817758     4.374528 
H    -0.836963     3.557124     7.500981 
H     9.928052     6.488877    10.682553 
H     9.796816     3.028465    12.971033 
H     3.458178     5.339186     6.562803 
H    10.292973     4.976319    -3.628859 
H     8.191981     9.245043     8.916371 
H     5.365434     1.472674    13.028502 
H     0.978322     1.463487     8.042594 
 CRYSTAL
 PRIMVEC      4
 12.444660414411    0.000000000    0.000000000
 0.000000000    12.444660414411    0.000000000
 0.000000000   0.000000000    12.444660414411
  PRIMCOORD      4
         190           1
O    10.765528     3.732456     3.563109 
O     3.188716     7.492303     8.308982 
O     4.732559     2.488837     7.879766 
O    11.998458    11.217763     2.406539 
O     4.258352     8.052648     4.238201 
O    -0.301100     9.992771     9.832324 
O     7.550883    -0.365151     2.409233 
O     7.485000     5.216576     5.630657 
O    13.507830     5.166018     9.033055 
O     3.634400     7.046312    10.677685 
O     7.803935    10.734571     8.057887 
O    -0.234390     1.092121    11.866217 
O     6.076436     3.630293     3.599601 
O    11.566332    10.867395     6.907244 
O     4.394494     1.784878     4.656548 
O    -1.990553     9.285102     5.302514 
O     8.512239     2.618289     2.747964 
O     3.836810    10.195234     8.359095 
O    10.373725    -1.055296    11.452030 
O     0.472436     4.562624     2.006116 
O     5.916889    12.973996     6.432043 
O     8.265801    10.326576     4.598465 
O     0.973781     0.175689     9.447559 
O     0.881440     3.655165    11.278777 
O     5.117588     7.789965    14.148823 
O     7.611526     8.087468     2.656935 
O     2.495801     4.651944     3.639173 
O     9.645048     7.328787     6.827497 
O     7.025410    10.240796     0.328684 
O     7.760490    11.819173    -1.957188 
O     6.935026     6.442309     8.588546 
O     4.709222     6.478029     6.527983 
O     9.249436     5.969542     3.370134 
O    10.031930     9.810575     1.066885 
O     0.130408     5.505136     5.401365 
O    -0.599944    13.784643     3.271606 
O     8.122288     2.913914     9.797504 
O     4.673952     5.033846     1.804833 
O     1.608508     8.282629    12.260771 
O     1.466821    10.831728     0.391212 
O     5.497252     4.004051     9.980388 
O    10.497817     1.028731     6.646254 
O     3.980026    -2.058965     0.923922 
O     3.905487     0.402628     9.775120 
O    10.348642     7.422875     1.587114 
O     1.542012     1.078241     4.857090 
O     8.128956     2.391955     7.130345 
O     0.477031     7.301640     2.176008 
O     4.870928    11.753661     3.017204 
O    12.618707     7.531409    10.315251 
O     3.695678     4.348757    11.946493 
O     1.535984     8.413759     4.526899 
O     1.487163    11.054459     5.806185 
O     6.121204     7.947871    10.465591 
O     5.428882    10.331391     5.252973 
O    -1.148584     4.445522     7.708260 
O    10.096119     7.415678    11.013501 
O     9.927364     3.012881    12.003803 
O     2.654453     4.831764     6.757540 
O     9.668756     5.301615    -2.981882 
O     8.528696     8.294324     9.075865 
O     5.573453     1.409882    -0.373875 
O     0.807345     2.035634     7.233482 
H     9.937366     3.316692     3.131131 
H     3.318354     7.191995     9.278223 
H     4.966545     3.133047     8.605056 
H    11.158284    10.870570     1.999935 
H     4.716906     8.803815     4.751868 
H    11.726461    10.091409     8.958282 
H     7.611367    -0.818971     1.610879 
H     6.788232     5.595520     6.184917 
H    13.250121     6.107181     9.255733 
H     3.621107     6.167719    11.111293 
H     7.608404    11.375881     8.809054 
H    11.372230     0.648205    11.713338 
H     5.458410     2.949824     4.073876 
H    12.452968    11.045886     6.383835 
H     4.828975    13.785966     5.414965 
H    -2.274679     8.388993     5.772212 
H     7.566229     2.986020     2.839697 
H    12.668714    10.791722     9.906409 
H    10.342980    -1.634581    12.239763 
H     0.678739     4.200355     1.155395 
H     5.499739    13.516138     7.180511 
H     8.009891     9.352995     4.176679 
H     0.548460     0.634203    10.176448 
H     0.617952     2.762739    11.109017 
H     4.748556     7.786208     2.609145 
H     8.134406    10.920524     3.825179 
H     3.399535     4.716937     3.194839 
H     9.227051     6.482103     6.812416 
H     6.873112     9.337385     0.517178 
H    -1.257404    14.213171     3.837053 
H     6.304617     6.571534     7.811926 
H     4.189099     6.990537     7.209669 
H     9.794911     5.177248     3.549657 
H     9.056603     9.867514    13.479519 
H    -0.590953     5.675849     6.027963 
H    11.575540    12.811433     3.284920 
H     7.333708     3.207422    10.196610 
H     4.936694     5.998277     1.739913 
H     2.586835     8.107947    12.163720 
H     0.815457    10.928356     1.121358 
H     5.854817     4.867219     9.889634 
H     9.621818     1.420253     6.709861 
H     4.823609    -1.858454     0.346760 
H     4.193608     0.519988    10.704038 
H    11.342437     7.444095     1.846511 
H     0.906031     1.057047     4.150310 
H     8.314856     2.504236     8.146948 
H    11.092983    11.825311     6.846336 
H     0.624429     6.313825     2.107025 
H     4.385911    12.412592     3.576222 
H    11.726990     7.351541    10.704937 
H     4.221892     4.568789     0.332214 
H     1.133672     7.841507     3.809028 
H     1.604920    11.874313     5.303096 
H     6.354413     7.364295     9.761679 
H     6.344729    10.183804     5.474127 
H    12.113025     4.728775     8.181556 
H    10.012033     7.386732    11.972211 
H    10.688480     3.463544    11.722863 
H     1.975863     5.003894     6.009495 